           3
Lattice="15.0 0.0 0.0 0.0 15.0 0.0 0.0 0.0 15.0" Timestep:       0.00, E =    -0.0349, T =     0.0000, V =    -0.0349
Ar        5.000        5.000        5.000
Ar        5.000        5.000        5.500
Ar        5.100        5.200        4.500
           3
Lattice="15.0 0.0 0.0 0.0 15.0 0.0 0.0 0.0 15.0" Timestep:       1.00, E =    -0.0327, T =     0.0011, V =    -0.0338
Ar        5.000        4.999        4.999
Ar        5.000        5.000        5.503
Ar        5.100        5.201        4.498
           3
Lattice="15.0 0.0 0.0 0.0 15.0 0.0 0.0 0.0 15.0" Timestep:       2.00, E =    -0.0269, T =     0.0040, V =    -0.0309
Ar        4.999        4.998        4.995
Ar        5.000        5.000        5.511
Ar        5.101        5.202        4.494
           3
Lattice="15.0 0.0 0.0 0.0 15.0 0.0 0.0 0.0 15.0" Timestep:       3.00, E =    -0.0191, T =     0.0079, V =    -0.0270
Ar        4.997        4.994        4.989
Ar        5.000        5.000        5.525
Ar        5.103        5.206        4.486
           3
Lattice="15.0 0.0 0.0 0.0 15.0 0.0 0.0 0.0 15.0" Timestep:       4.00, E =    -0.0107, T =     0.0121, V =    -0.0228
Ar        4.995        4.990        4.982
Ar        5.000        5.000        5.542
Ar        5.105        5.210        4.476
           3
Lattice="15.0 0.0 0.0 0.0 15.0 0.0 0.0 0.0 15.0" Timestep:       5.00, E =    -0.0029, T =     0.0160, V =    -0.0189
Ar        4.992        4.985        4.975
Ar        5.000        5.000        5.562
Ar        5.108        5.215        4.463
           3
Lattice="15.0 0.0 0.0 0.0 15.0 0.0 0.0 0.0 15.0" Timestep:       6.00, E =     0.0041, T =     0.0195, V =    -0.0154
Ar        4.989        4.978        4.968
Ar        5.000        5.000        5.585
Ar        5.111        5.222        4.447
           3
Lattice="15.0 0.0 0.0 0.0 15.0 0.0 0.0 0.0 15.0" Timestep:       7.00, E =     0.0101, T =     0.0225, V =    -0.0124
Ar        4.985        4.971        4.961
Ar        5.000        5.000        5.609
Ar        5.114        5.229        4.430
           3
Lattice="15.0 0.0 0.0 0.0 15.0 0.0 0.0 0.0 15.0" Timestep:       8.00, E =     0.0151, T =     0.0250, V =    -0.0099
Ar        4.981        4.963        4.955
Ar        5.000        5.001        5.634
Ar        5.118        5.237        4.411
           3
Lattice="15.0 0.0 0.0 0.0 15.0 0.0 0.0 0.0 15.0" Timestep:       9.00, E =     0.0192, T =     0.0270, V =    -0.0079
Ar        4.977        4.954        4.949
Ar        5.000        5.001        5.660
Ar        5.123        5.245        4.391
           3
Lattice="15.0 0.0 0.0 0.0 15.0 0.0 0.0 0.0 15.0" Timestep:      10.00, E =     0.0224, T =     0.0287, V =    -0.0062
Ar        4.972        4.944        4.943
Ar        5.001        5.001        5.686
Ar        5.127        5.255        4.370
           3
Lattice="15.0 0.0 0.0 0.0 15.0 0.0 0.0 0.0 15.0" Timestep:      11.00, E =     0.0251, T =     0.0300, V =    -0.0049
Ar        4.967        4.934        4.938
Ar        5.001        5.002        5.713
Ar        5.132        5.264        4.348
           3
Lattice="15.0 0.0 0.0 0.0 15.0 0.0 0.0 0.0 15.0" Timestep:      12.00, E =     0.0271, T =     0.0310, V =    -0.0039
Ar        4.962        4.924        4.933
Ar        5.001        5.002        5.741
Ar        5.137        5.274        4.326
           3
Lattice="15.0 0.0 0.0 0.0 15.0 0.0 0.0 0.0 15.0" Timestep:      13.00, E =     0.0287, T =     0.0318, V =    -0.0031
Ar        4.957        4.913        4.929
Ar        5.001        5.002        5.768
Ar        5.142        5.284        4.303
           3
Lattice="15.0 0.0 0.0 0.0 15.0 0.0 0.0 0.0 15.0" Timestep:      14.00, E =     0.0300, T =     0.0324, V =    -0.0025
Ar        4.951        4.902        4.924
Ar        5.001        5.003        5.796
Ar        5.147        5.295        4.280
           3
Lattice="15.0 0.0 0.0 0.0 15.0 0.0 0.0 0.0 15.0" Timestep:      15.00, E =     0.0309, T =     0.0329, V =    -0.0020
Ar        4.946        4.892        4.920
Ar        5.002        5.003        5.824
Ar        5.153        5.305        4.256
           3
Lattice="15.0 0.0 0.0 0.0 15.0 0.0 0.0 0.0 15.0" Timestep:      16.00, E =     0.0317, T =     0.0333, V =    -0.0016
Ar        4.940        4.880        4.916
Ar        5.002        5.004        5.852
Ar        5.158        5.316        4.233
           3
Lattice="15.0 0.0 0.0 0.0 15.0 0.0 0.0 0.0 15.0" Timestep:      17.00, E =     0.0323, T =     0.0336, V =    -0.0013
Ar        4.935        4.869        4.911
Ar        5.002        5.004        5.880
Ar        5.163        5.327        4.209
           3
Lattice="15.0 0.0 0.0 0.0 15.0 0.0 0.0 0.0 15.0" Timestep:      18.00, E =     0.0328, T =     0.0339, V =    -0.0010
Ar        4.929        4.858        4.907
Ar        5.002        5.005        5.908
Ar        5.169        5.337        4.185
           3
Lattice="15.0 0.0 0.0 0.0 15.0 0.0 0.0 0.0 15.0" Timestep:      19.00, E =     0.0332, T =     0.0340, V =    -0.0009
Ar        4.923        4.847        4.903
Ar        5.003        5.005        5.936
Ar        5.174        5.348        4.161
           3
Lattice="15.0 0.0 0.0 0.0 15.0 0.0 0.0 0.0 15.0" Timestep:      20.00, E =     0.0335, T =     0.0342, V =    -0.0007
Ar        4.918        4.835        4.899
Ar        5.003        5.006        5.964
Ar        5.180        5.359        4.137
           3
Lattice="15.0 0.0 0.0 0.0 15.0 0.0 0.0 0.0 15.0" Timestep:      21.00, E =     0.0337, T =     0.0343, V =    -0.0006
Ar        4.912        4.824        4.895
Ar        5.003        5.006        5.992
Ar        5.185        5.370        4.113
           3
Lattice="15.0 0.0 0.0 0.0 15.0 0.0 0.0 0.0 15.0" Timestep:      22.00, E =     0.0339, T =     0.0344, V =    -0.0005
Ar        4.906        4.812        4.891
Ar        5.003        5.007        6.021
Ar        5.191        5.381        4.088
           3
Lattice="15.0 0.0 0.0 0.0 15.0 0.0 0.0 0.0 15.0" Timestep:      23.00, E =     0.0341, T =     0.0345, V =    -0.0004
Ar        4.900        4.801        4.887
Ar        5.004        5.007        6.049
Ar        5.196        5.392        4.064
           3
Lattice="15.0 0.0 0.0 0.0 15.0 0.0 0.0 0.0 15.0" Timestep:      24.00, E =     0.0342, T =     0.0346, V =    -0.0003
Ar        4.895        4.789        4.883
Ar        5.004        5.008        6.077
Ar        5.202        5.403        4.040
           3
Lattice="15.0 0.0 0.0 0.0 15.0 0.0 0.0 0.0 15.0" Timestep:      25.00, E =     0.0343, T =     0.0346, V =    -0.0003
Ar        4.889        4.777        4.879
Ar        5.004        5.008        6.106
Ar        5.207        5.415        4.015
           3
Lattice="15.0 0.0 0.0 0.0 15.0 0.0 0.0 0.0 15.0" Timestep:      26.00, E =     0.0344, T =     0.0347, V =    -0.0002
Ar        4.883        4.766        4.875
Ar        5.004        5.009        6.134
Ar        5.213        5.426        3.991
           3
Lattice="15.0 0.0 0.0 0.0 15.0 0.0 0.0 0.0 15.0" Timestep:      27.00, E =     0.0345, T =     0.0347, V =    -0.0002
Ar        4.877        4.754        4.871
Ar        5.005        5.009        6.162
Ar        5.218        5.437        3.967
           3
Lattice="15.0 0.0 0.0 0.0 15.0 0.0 0.0 0.0 15.0" Timestep:      28.00, E =     0.0345, T =     0.0347, V =    -0.0002
Ar        4.871        4.743        4.867
Ar        5.005        5.010        6.191
Ar        5.224        5.448        3.942
           3
Lattice="15.0 0.0 0.0 0.0 15.0 0.0 0.0 0.0 15.0" Timestep:      29.00, E =     0.0346, T =     0.0348, V =    -0.0002
Ar        4.865        4.731        4.863
Ar        5.005        5.010        6.219
Ar        5.230        5.459        3.918
           3
Lattice="15.0 0.0 0.0 0.0 15.0 0.0 0.0 0.0 15.0" Timestep:      30.00, E =     0.0346, T =     0.0348, V =    -0.0001
Ar        4.860        4.719        4.859
Ar        5.005        5.011        6.247
Ar        5.235        5.470        3.894
           3
Lattice="15.0 0.0 0.0 0.0 15.0 0.0 0.0 0.0 15.0" Timestep:      31.00, E =     0.0347, T =     0.0348, V =    -0.0001
Ar        4.854        4.708        4.855
Ar        5.006        5.011        6.276
Ar        5.241        5.481        3.869
           3
Lattice="15.0 0.0 0.0 0.0 15.0 0.0 0.0 0.0 15.0" Timestep:      32.00, E =     0.0347, T =     0.0348, V =    -0.0001
Ar        4.848        4.696        4.851
Ar        5.006        5.012        6.304
Ar        5.246        5.492        3.845
           3
Lattice="15.0 0.0 0.0 0.0 15.0 0.0 0.0 0.0 15.0" Timestep:      33.00, E =     0.0347, T =     0.0348, V =    -0.0001
Ar        4.842        4.684        4.847
Ar        5.006        5.012        6.333
Ar        5.252        5.504        3.820
           3
Lattice="15.0 0.0 0.0 0.0 15.0 0.0 0.0 0.0 15.0" Timestep:      34.00, E =     0.0348, T =     0.0348, V =    -0.0001
Ar        4.836        4.673        4.843
Ar        5.006        5.013        6.361
Ar        5.257        5.515        3.796
           3
Lattice="15.0 0.0 0.0 0.0 15.0 0.0 0.0 0.0 15.0" Timestep:      35.00, E =     0.0348, T =     0.0348, V =    -0.0001
Ar        4.831        4.661        4.839
Ar        5.007        5.013        6.389
Ar        5.263        5.526        3.771
           3
Lattice="15.0 0.0 0.0 0.0 15.0 0.0 0.0 0.0 15.0" Timestep:      36.00, E =     0.0348, T =     0.0348, V =    -0.0001
Ar        4.825        4.649        4.835
Ar        5.007        5.014        6.418
Ar        5.269        5.537        3.747
           3
Lattice="15.0 0.0 0.0 0.0 15.0 0.0 0.0 0.0 15.0" Timestep:      37.00, E =     0.0348, T =     0.0349, V =    -0.0000
Ar        4.819        4.638        4.831
Ar        5.007        5.014        6.446
Ar        5.274        5.548        3.723
           3
Lattice="15.0 0.0 0.0 0.0 15.0 0.0 0.0 0.0 15.0" Timestep:      38.00, E =     0.0348, T =     0.0349, V =    -0.0000
Ar        4.813        4.626        4.827
Ar        5.007        5.015        6.474
Ar        5.280        5.559        3.698
           3
Lattice="15.0 0.0 0.0 0.0 15.0 0.0 0.0 0.0 15.0" Timestep:      39.00, E =     0.0348, T =     0.0349, V =    -0.0000
Ar        4.807        4.614        4.823
Ar        5.008        5.015        6.503
Ar        5.285        5.571        3.674
           3
Lattice="15.0 0.0 0.0 0.0 15.0 0.0 0.0 0.0 15.0" Timestep:      40.00, E =     0.0348, T =     0.0349, V =    -0.0000
Ar        4.801        4.603        4.820
Ar        5.008        5.016        6.531
Ar        5.291        5.582        3.649
           3
Lattice="15.0 0.0 0.0 0.0 15.0 0.0 0.0 0.0 15.0" Timestep:      41.00, E =     0.0348, T =     0.0349, V =    -0.0000
Ar        4.795        4.591        4.816
Ar        5.008        5.016        6.560
Ar        5.296        5.593        3.625
           3
Lattice="15.0 0.0 0.0 0.0 15.0 0.0 0.0 0.0 15.0" Timestep:      42.00, E =     0.0348, T =     0.0349, V =    -0.0000
Ar        4.790        4.579        4.812
Ar        5.008        5.017        6.588
Ar        5.302        5.604        3.600
           3
Lattice="15.0 0.0 0.0 0.0 15.0 0.0 0.0 0.0 15.0" Timestep:      43.00, E =     0.0349, T =     0.0349, V =    -0.0000
Ar        4.784        4.568        4.808
Ar        5.009        5.017        6.616
Ar        5.308        5.615        3.576
           3
Lattice="15.0 0.0 0.0 0.0 15.0 0.0 0.0 0.0 15.0" Timestep:      44.00, E =     0.0349, T =     0.0349, V =    -0.0000
Ar        4.778        4.556        4.804
Ar        5.009        5.018        6.645
Ar        5.313        5.626        3.552
           3
Lattice="15.0 0.0 0.0 0.0 15.0 0.0 0.0 0.0 15.0" Timestep:      45.00, E =     0.0349, T =     0.0349, V =    -0.0000
Ar        4.772        4.544        4.800
Ar        5.009        5.018        6.673
Ar        5.319        5.638        3.527
           3
Lattice="15.0 0.0 0.0 0.0 15.0 0.0 0.0 0.0 15.0" Timestep:      46.00, E =     0.0349, T =     0.0349, V =    -0.0000
Ar        4.766        4.533        4.796
Ar        5.009        5.019        6.702
Ar        5.324        5.649        3.503
           3
Lattice="15.0 0.0 0.0 0.0 15.0 0.0 0.0 0.0 15.0" Timestep:      47.00, E =     0.0349, T =     0.0349, V =    -0.0000
Ar        4.760        4.521        4.792
Ar        5.010        5.019        6.730
Ar        5.330        5.660        3.478
           3
Lattice="15.0 0.0 0.0 0.0 15.0 0.0 0.0 0.0 15.0" Timestep:      48.00, E =     0.0349, T =     0.0349, V =    -0.0000
Ar        4.755        4.509        4.788
Ar        5.010        5.020        6.758
Ar        5.336        5.671        3.454
           3
Lattice="15.0 0.0 0.0 0.0 15.0 0.0 0.0 0.0 15.0" Timestep:      49.00, E =     0.0349, T =     0.0349, V =    -0.0000
Ar        4.749        4.497        4.784
Ar        5.010        5.020        6.787
Ar        5.341        5.682        3.429
           3
Lattice="15.0 0.0 0.0 0.0 15.0 0.0 0.0 0.0 15.0" Timestep:      50.00, E =     0.0349, T =     0.0349, V =    -0.0000
Ar        4.743        4.486        4.780
Ar        5.010        5.021        6.815
Ar        5.347        5.694        3.405
           3
Lattice="15.0 0.0 0.0 0.0 15.0 0.0 0.0 0.0 15.0" Timestep:      51.00, E =     0.0349, T =     0.0349, V =    -0.0000
Ar        4.737        4.474        4.776
Ar        5.011        5.021        6.844
Ar        5.352        5.705        3.380
           3
Lattice="15.0 0.0 0.0 0.0 15.0 0.0 0.0 0.0 15.0" Timestep:      52.00, E =     0.0349, T =     0.0349, V =    -0.0000
Ar        4.731        4.462        4.772
Ar        5.011        5.022        6.872
Ar        5.358        5.716        3.356
           3
Lattice="15.0 0.0 0.0 0.0 15.0 0.0 0.0 0.0 15.0" Timestep:      53.00, E =     0.0349, T =     0.0349, V =    -0.0000
Ar        4.725        4.451        4.768
Ar        5.011        5.022        6.900
Ar        5.364        5.727        3.331
           3
Lattice="15.0 0.0 0.0 0.0 15.0 0.0 0.0 0.0 15.0" Timestep:      54.00, E =     0.0349, T =     0.0349, V =    -0.0000
Ar        4.720        4.439        4.764
Ar        5.011        5.023        6.929
Ar        5.369        5.738        3.307
           3
Lattice="15.0 0.0 0.0 0.0 15.0 0.0 0.0 0.0 15.0" Timestep:      55.00, E =     0.0349, T =     0.0349, V =    -0.0000
Ar        4.714        4.427        4.760
Ar        5.012        5.023        6.957
Ar        5.375        5.749        3.283
           3
Lattice="15.0 0.0 0.0 0.0 15.0 0.0 0.0 0.0 15.0" Timestep:      56.00, E =     0.0349, T =     0.0349, V =    -0.0000
Ar        4.708        4.416        4.756
Ar        5.012        5.024        6.986
Ar        5.380        5.761        3.258
           3
Lattice="15.0 0.0 0.0 0.0 15.0 0.0 0.0 0.0 15.0" Timestep:      57.00, E =     0.0349, T =     0.0349, V =    -0.0000
Ar        4.702        4.404        4.752
Ar        5.012        5.024        7.014
Ar        5.386        5.772        3.234
           3
Lattice="15.0 0.0 0.0 0.0 15.0 0.0 0.0 0.0 15.0" Timestep:      58.00, E =     0.0349, T =     0.0349, V =    -0.0000
Ar        4.696        4.392        4.748
Ar        5.012        5.025        7.042
Ar        5.391        5.783        3.209
           3
Lattice="15.0 0.0 0.0 0.0 15.0 0.0 0.0 0.0 15.0" Timestep:      59.00, E =     0.0349, T =     0.0349, V =    -0.0000
Ar        4.690        4.381        4.745
Ar        5.013        5.025        7.071
Ar        5.397        5.794        3.185
           3
Lattice="15.0 0.0 0.0 0.0 15.0 0.0 0.0 0.0 15.0" Timestep:      60.00, E =     0.0349, T =     0.0349, V =    -0.0000
Ar        4.684        4.369        4.741
Ar        5.013        5.026        7.099
Ar        5.403        5.805        3.160
           3
Lattice="15.0 0.0 0.0 0.0 15.0 0.0 0.0 0.0 15.0" Timestep:      61.00, E =     0.0349, T =     0.0349, V =    -0.0000
Ar        4.679        4.357        4.737
Ar        5.013        5.026        7.127
Ar        5.408        5.817        3.136
           3
Lattice="15.0 0.0 0.0 0.0 15.0 0.0 0.0 0.0 15.0" Timestep:      62.00, E =     0.0349, T =     0.0349, V =    -0.0000
Ar        4.673        4.346        4.733
Ar        5.013        5.027        7.156
Ar        5.414        5.828        3.111
           3
Lattice="15.0 0.0 0.0 0.0 15.0 0.0 0.0 0.0 15.0" Timestep:      63.00, E =     0.0349, T =     0.0349, V =    -0.0000
Ar        4.667        4.334        4.729
Ar        5.014        5.027        7.184
Ar        5.419        5.839        3.087
           3
Lattice="15.0 0.0 0.0 0.0 15.0 0.0 0.0 0.0 15.0" Timestep:      64.00, E =     0.0349, T =     0.0349, V =    -0.0000
Ar        4.661        4.322        4.725
Ar        5.014        5.028        7.213
Ar        5.425        5.850        3.063
           3
Lattice="15.0 0.0 0.0 0.0 15.0 0.0 0.0 0.0 15.0" Timestep:      65.00, E =     0.0349, T =     0.0349, V =    -0.0000
Ar        4.655        4.310        4.721
Ar        5.014        5.028        7.241
Ar        5.431        5.861        3.038
           3
Lattice="15.0 0.0 0.0 0.0 15.0 0.0 0.0 0.0 15.0" Timestep:      66.00, E =     0.0349, T =     0.0349, V =    -0.0000
Ar        4.649        4.299        4.717
Ar        5.014        5.029        7.269
Ar        5.436        5.872        3.014
           3
Lattice="15.0 0.0 0.0 0.0 15.0 0.0 0.0 0.0 15.0" Timestep:      67.00, E =     0.0349, T =     0.0349, V =    -0.0000
Ar        4.644        4.287        4.713
Ar        5.015        5.029        7.298
Ar        5.442        5.884        2.989
           3
Lattice="15.0 0.0 0.0 0.0 15.0 0.0 0.0 0.0 15.0" Timestep:      68.00, E =     0.0349, T =     0.0349, V =    -0.0000
Ar        4.638        4.275        4.709
Ar        5.015        5.030        7.326
Ar        5.447        5.895        2.965
           3
Lattice="15.0 0.0 0.0 0.0 15.0 0.0 0.0 0.0 15.0" Timestep:      69.00, E =     0.0349, T =     0.0349, V =    -0.0000
Ar        4.632        4.264        4.705
Ar        5.015        5.030        7.355
Ar        5.453        5.906        2.940
           3
Lattice="15.0 0.0 0.0 0.0 15.0 0.0 0.0 0.0 15.0" Timestep:      70.00, E =     0.0349, T =     0.0349, V =    -0.0000
Ar        4.626        4.252        4.701
Ar        5.015        5.031        7.383
Ar        5.459        5.917        2.916
           3
Lattice="15.0 0.0 0.0 0.0 15.0 0.0 0.0 0.0 15.0" Timestep:      71.00, E =     0.0349, T =     0.0349, V =    -0.0000
Ar        4.620        4.240        4.697
Ar        5.016        5.031        7.411
Ar        5.464        5.928        2.891
           3
Lattice="15.0 0.0 0.0 0.0 15.0 0.0 0.0 0.0 15.0" Timestep:      72.00, E =     0.0349, T =     0.0349, V =    -0.0000
Ar        4.614        4.229        4.693
Ar        5.016        5.032        7.440
Ar        5.470        5.940        2.867
           3
Lattice="15.0 0.0 0.0 0.0 15.0 0.0 0.0 0.0 15.0" Timestep:      73.00, E =     0.0349, T =     0.0349, V =    -0.0000
Ar        4.608        4.217        4.689
Ar        5.016        5.032        7.468
Ar        5.475        5.951        2.842
           3
Lattice="15.0 0.0 0.0 0.0 15.0 0.0 0.0 0.0 15.0" Timestep:      74.00, E =     0.0349, T =     0.0349, V =    -0.0000
Ar        4.603        4.205        4.685
Ar        5.016        5.033        7.497
Ar        5.481        5.962        2.818
           3
Lattice="15.0 0.0 0.0 0.0 15.0 0.0 0.0 0.0 15.0" Timestep:      75.00, E =     0.0349, T =     0.0349, V =    -0.0000
Ar        4.597        4.194        4.681
Ar        5.017        5.033        7.525
Ar        5.487        5.973        2.794
           3
Lattice="15.0 0.0 0.0 0.0 15.0 0.0 0.0 0.0 15.0" Timestep:      76.00, E =     0.0349, T =     0.0349, V =    -0.0000
Ar        4.591        4.182        4.677
Ar        5.017        5.034        7.553
Ar        5.492        5.984        2.769
           3
Lattice="15.0 0.0 0.0 0.0 15.0 0.0 0.0 0.0 15.0" Timestep:      77.00, E =     0.0349, T =     0.0349, V =    -0.0000
Ar        4.585        4.170        4.674
Ar        5.017        5.034        7.582
Ar        5.498        5.995        2.745
           3
Lattice="15.0 0.0 0.0 0.0 15.0 0.0 0.0 0.0 15.0" Timestep:      78.00, E =     0.0349, T =     0.0349, V =    -0.0000
Ar        4.579        4.158        4.670
Ar        5.017        5.035        7.610
Ar        5.503        6.007        2.720
           3
Lattice="15.0 0.0 0.0 0.0 15.0 0.0 0.0 0.0 15.0" Timestep:      79.00, E =     0.0349, T =     0.0349, V =    -0.0000
Ar        4.573        4.147        4.666
Ar        5.018        5.035        7.639
Ar        5.509        6.018        2.696
           3
Lattice="15.0 0.0 0.0 0.0 15.0 0.0 0.0 0.0 15.0" Timestep:      80.00, E =     0.0349, T =     0.0349, V =    -0.0000
Ar        4.568        4.135        4.662
Ar        5.018        5.036        7.667
Ar        5.515        6.029        2.671
           3
Lattice="15.0 0.0 0.0 0.0 15.0 0.0 0.0 0.0 15.0" Timestep:      81.00, E =     0.0349, T =     0.0349, V =    -0.0000
Ar        4.562        4.123        4.658
Ar        5.018        5.036        7.695
Ar        5.520        6.040        2.647
           3
Lattice="15.0 0.0 0.0 0.0 15.0 0.0 0.0 0.0 15.0" Timestep:      82.00, E =     0.0349, T =     0.0349, V =    -0.0000
Ar        4.556        4.112        4.654
Ar        5.018        5.037        7.724
Ar        5.526        6.051        2.622
           3
Lattice="15.0 0.0 0.0 0.0 15.0 0.0 0.0 0.0 15.0" Timestep:      83.00, E =     0.0349, T =     0.0349, V =    -0.0000
Ar        4.550        4.100        4.650
Ar        5.019        5.037        7.752
Ar        5.531        6.063        2.598
           3
Lattice="15.0 0.0 0.0 0.0 15.0 0.0 0.0 0.0 15.0" Timestep:      84.00, E =     0.0349, T =     0.0349, V =    -0.0000
Ar        4.544        4.088        4.646
Ar        5.019        5.038        7.781
Ar        5.537        6.074        2.574
           3
Lattice="15.0 0.0 0.0 0.0 15.0 0.0 0.0 0.0 15.0" Timestep:      85.00, E =     0.0349, T =     0.0349, V =    -0.0000
Ar        4.538        4.077        4.642
Ar        5.019        5.038        7.809
Ar        5.542        6.085        2.549
           3
Lattice="15.0 0.0 0.0 0.0 15.0 0.0 0.0 0.0 15.0" Timestep:      86.00, E =     0.0349, T =     0.0349, V =    -0.0000
Ar        4.532        4.065        4.638
Ar        5.019        5.039        7.837
Ar        5.548        6.096        2.525
           3
Lattice="15.0 0.0 0.0 0.0 15.0 0.0 0.0 0.0 15.0" Timestep:      87.00, E =     0.0349, T =     0.0349, V =    -0.0000
Ar        4.527        4.053        4.634
Ar        5.020        5.039        7.866
Ar        5.554        6.107        2.500
           3
Lattice="15.0 0.0 0.0 0.0 15.0 0.0 0.0 0.0 15.0" Timestep:      88.00, E =     0.0349, T =     0.0349, V =    -0.0000
Ar        4.521        4.042        4.630
Ar        5.020        5.040        7.894
Ar        5.559        6.118        2.476
           3
Lattice="15.0 0.0 0.0 0.0 15.0 0.0 0.0 0.0 15.0" Timestep:      89.00, E =     0.0349, T =     0.0349, V =    -0.0000
Ar        4.515        4.030        4.626
Ar        5.020        5.040        7.923
Ar        5.565        6.130        2.451
           3
Lattice="15.0 0.0 0.0 0.0 15.0 0.0 0.0 0.0 15.0" Timestep:      90.00, E =     0.0349, T =     0.0349, V =    -0.0000
Ar        4.509        4.018        4.622
Ar        5.020        5.041        7.951
Ar        5.570        6.141        2.427
           3
Lattice="15.0 0.0 0.0 0.0 15.0 0.0 0.0 0.0 15.0" Timestep:      91.00, E =     0.0349, T =     0.0349, V =    -0.0000
Ar        4.503        4.006        4.618
Ar        5.021        5.042        7.979
Ar        5.576        6.152        2.402
           3
Lattice="15.0 0.0 0.0 0.0 15.0 0.0 0.0 0.0 15.0" Timestep:      92.00, E =     0.0349, T =     0.0349, V =    -0.0000
Ar        4.497        3.995        4.614
Ar        5.021        5.042        8.008
Ar        5.582        6.163        2.378
           3
Lattice="15.0 0.0 0.0 0.0 15.0 0.0 0.0 0.0 15.0" Timestep:      93.00, E =     0.0349, T =     0.0349, V =    -0.0000
Ar        4.492        3.983        4.610
Ar        5.021        5.043        8.036
Ar        5.587        6.174        2.353
           3
Lattice="15.0 0.0 0.0 0.0 15.0 0.0 0.0 0.0 15.0" Timestep:      94.00, E =     0.0349, T =     0.0349, V =    -0.0000
Ar        4.486        3.971        4.606
Ar        5.022        5.043        8.065
Ar        5.593        6.186        2.329
           3
Lattice="15.0 0.0 0.0 0.0 15.0 0.0 0.0 0.0 15.0" Timestep:      95.00, E =     0.0349, T =     0.0349, V =    -0.0000
Ar        4.480        3.960        4.602
Ar        5.022        5.044        8.093
Ar        5.598        6.197        2.305
           3
Lattice="15.0 0.0 0.0 0.0 15.0 0.0 0.0 0.0 15.0" Timestep:      96.00, E =     0.0349, T =     0.0349, V =    -0.0000
Ar        4.474        3.948        4.599
Ar        5.022        5.044        8.121
Ar        5.604        6.208        2.280
           3
Lattice="15.0 0.0 0.0 0.0 15.0 0.0 0.0 0.0 15.0" Timestep:      97.00, E =     0.0349, T =     0.0349, V =    -0.0000
Ar        4.468        3.936        4.595
Ar        5.022        5.045        8.150
Ar        5.610        6.219        2.256
           3
Lattice="15.0 0.0 0.0 0.0 15.0 0.0 0.0 0.0 15.0" Timestep:      98.00, E =     0.0349, T =     0.0349, V =    -0.0000
Ar        4.462        3.925        4.591
Ar        5.023        5.045        8.178
Ar        5.615        6.230        2.231
           3
Lattice="15.0 0.0 0.0 0.0 15.0 0.0 0.0 0.0 15.0" Timestep:      99.00, E =     0.0349, T =     0.0349, V =    -0.0000
Ar        4.456        3.913        4.587
Ar        5.023        5.046        8.207
Ar        5.621        6.242        2.207
           3
Lattice="15.0 0.0 0.0 0.0 15.0 0.0 0.0 0.0 15.0" Timestep:     100.00, E =     0.0349, T =     0.0349, V =    -0.0000
Ar        4.451        3.901        4.583
Ar        5.023        5.046        8.235
Ar        5.626        6.253        2.182
           3
Lattice="15.0 0.0 0.0 0.0 15.0 0.0 0.0 0.0 15.0" Timestep:     101.00, E =     0.0349, T =     0.0349, V =    -0.0000
Ar        4.445        3.890        4.579
Ar        5.023        5.047        8.263
Ar        5.632        6.264        2.158
           3
Lattice="15.0 0.0 0.0 0.0 15.0 0.0 0.0 0.0 15.0" Timestep:     102.00, E =     0.0349, T =     0.0349, V =    -0.0000
Ar        4.439        3.878        4.575
Ar        5.024        5.047        8.292
Ar        5.638        6.275        2.133
           3
Lattice="15.0 0.0 0.0 0.0 15.0 0.0 0.0 0.0 15.0" Timestep:     103.00, E =     0.0349, T =     0.0349, V =    -0.0000
Ar        4.433        3.866        4.571
Ar        5.024        5.048        8.320
Ar        5.643        6.286        2.109
           3
Lattice="15.0 0.0 0.0 0.0 15.0 0.0 0.0 0.0 15.0" Timestep:     104.00, E =     0.0349, T =     0.0349, V =    -0.0000
Ar        4.427        3.854        4.567
Ar        5.024        5.048        8.349
Ar        5.649        6.297        2.084
           3
Lattice="15.0 0.0 0.0 0.0 15.0 0.0 0.0 0.0 15.0" Timestep:     105.00, E =     0.0349, T =     0.0349, V =    -0.0000
Ar        4.421        3.843        4.563
Ar        5.024        5.049        8.377
Ar        5.654        6.309        2.060
           3
Lattice="15.0 0.0 0.0 0.0 15.0 0.0 0.0 0.0 15.0" Timestep:     106.00, E =     0.0349, T =     0.0349, V =    -0.0000
Ar        4.416        3.831        4.559
Ar        5.025        5.049        8.405
Ar        5.660        6.320        2.036
           3
Lattice="15.0 0.0 0.0 0.0 15.0 0.0 0.0 0.0 15.0" Timestep:     107.00, E =     0.0349, T =     0.0349, V =    -0.0000
Ar        4.410        3.819        4.555
Ar        5.025        5.050        8.434
Ar        5.665        6.331        2.011
           3
Lattice="15.0 0.0 0.0 0.0 15.0 0.0 0.0 0.0 15.0" Timestep:     108.00, E =     0.0349, T =     0.0349, V =    -0.0000
Ar        4.404        3.808        4.551
Ar        5.025        5.050        8.462
Ar        5.671        6.342        1.987
           3
Lattice="15.0 0.0 0.0 0.0 15.0 0.0 0.0 0.0 15.0" Timestep:     109.00, E =     0.0349, T =     0.0349, V =    -0.0000
Ar        4.398        3.796        4.547
Ar        5.025        5.051        8.491
Ar        5.677        6.353        1.962
           3
Lattice="15.0 0.0 0.0 0.0 15.0 0.0 0.0 0.0 15.0" Timestep:     110.00, E =     0.0349, T =     0.0349, V =    -0.0000
Ar        4.392        3.784        4.543
Ar        5.026        5.051        8.519
Ar        5.682        6.365        1.938
           3
Lattice="15.0 0.0 0.0 0.0 15.0 0.0 0.0 0.0 15.0" Timestep:     111.00, E =     0.0349, T =     0.0349, V =    -0.0000
Ar        4.386        3.773        4.539
Ar        5.026        5.052        8.547
Ar        5.688        6.376        1.913
           3
Lattice="15.0 0.0 0.0 0.0 15.0 0.0 0.0 0.0 15.0" Timestep:     112.00, E =     0.0349, T =     0.0349, V =    -0.0000
Ar        4.380        3.761        4.535
Ar        5.026        5.052        8.576
Ar        5.693        6.387        1.889
           3
Lattice="15.0 0.0 0.0 0.0 15.0 0.0 0.0 0.0 15.0" Timestep:     113.00, E =     0.0349, T =     0.0349, V =    -0.0000
Ar        4.375        3.749        4.531
Ar        5.026        5.053        8.604
Ar        5.699        6.398        1.864
           3
Lattice="15.0 0.0 0.0 0.0 15.0 0.0 0.0 0.0 15.0" Timestep:     114.00, E =     0.0349, T =     0.0349, V =    -0.0000
Ar        4.369        3.738        4.528
Ar        5.027        5.053        8.633
Ar        5.705        6.409        1.840
           3
Lattice="15.0 0.0 0.0 0.0 15.0 0.0 0.0 0.0 15.0" Timestep:     115.00, E =     0.0349, T =     0.0349, V =    -0.0000
Ar        4.363        3.726        4.524
Ar        5.027        5.054        8.661
Ar        5.710        6.420        1.816
           3
Lattice="15.0 0.0 0.0 0.0 15.0 0.0 0.0 0.0 15.0" Timestep:     116.00, E =     0.0349, T =     0.0349, V =    -0.0000
Ar        4.357        3.714        4.520